 Gaussian 09, Revision D.01,
 Gaussian 09:  ES64L-G09RevD.01 24-Apr-2013

 ------------------------------------------
 #p opt=modredundant freq wb97xd/gen nosymm
 ------------------------------------------

 ------------
 Monopodal Ti
 ------------
 Symbolic Z-matrix:
 Charge =  0 Multiplicity = 1

 SCF Done:  E(RwB97XD) =  -5568.90472611     A.U. after   20 cycles
 SCF Done:  E(RwB97XD) =  -5568.93901843     A.U. after   14 cycles
 SCF Done:  E(RwB97XD) =  -5569.01476246     A.U. after   15 cycles
 SCF Done:  E(RwB97XD) =  -5569.05707043     A.U. after   15 cycles
 SCF Done:  E(RwB97XD) =  -5569.07037592     A.U. after   14 cycles
 SCF Done:  E(RwB97XD) =  -5569.07858982     A.U. after   14 cycles
 SCF Done:  E(RwB97XD) =  -5569.08485563     A.U. after   14 cycles
 SCF Done:  E(RwB97XD) =  -5569.08831741     A.U. after   13 cycles
 SCF Done:  E(RwB97XD) =  -5569.09251651     A.U. after   14 cycles
 SCF Done:  E(RwB97XD) =  -5569.09379141     A.U. after   13 cycles
 SCF Done:  E(RwB97XD) =  -5569.09667905     A.U. after    9 cycles
 SCF Done:  E(RwB97XD) =  -5569.09667985     A.U. after    9 cycles
 SCF Done:  E(RwB97XD) =  -5569.09668085     A.U. after   10 cycles
 SCF Done:  E(RwB97XD) =  -5569.09668166     A.U. after   10 cycles
 SCF Done:  E(RwB97XD) =  -5569.09668268     A.U. after   10 cycles
 SCF Done:  E(RwB97XD) =  -5569.09668322     A.U. after    8 cycles
 SCF Done:  E(RwB97XD) =  -5569.09668337     A.U. after    8 cycles
 SCF Done:  E(RwB97XD) =  -5569.09668345     A.U. after    8 cycles
 SCF Done:  E(RwB97XD) =  -5569.09668347     A.U. after    8 cycles
 Optimization completed.
    -- Stationary point found.

 1\1\GINC-NODE122\FOpt\RwB97XD\Gen\Cl6H4O7Si2Ti2\SALMAN\03-Feb-2019\0\\
 #p opt=modredundant freq wb97xd/gen nosymm\\Monopodal Ti\\0,1\Ti,3.193
 5961931,-2.0760672158,0.3309447481\Cl,4.2737397679,-3.7055175642,1.294
 3349172\Cl,4.5251377795,-1.0021475263,-1.0158140987\Cl,2.4072113746,-0
 .7237133205,1.8509946976\Ti,0.0373604128,1.8348640818,-0.4126465331\Cl
 ,2.1553458737,2.2031948219,-0.7696127835\Cl,-1.1354280469,3.3276110936
 ,-1.4803655759\Cl,-0.4204943487,1.9582930977,1.7137965657\Si,-1.210284
 0119,-0.895465968,-1.8845209332\O,-0.3975836541,0.2430434664,-1.024150

 Normal termination of Gaussian 09 at Sun Feb  3 14:50:16 2019.

 -------------------------------------------------------------------
 #P Geom=AllCheck Guess=TCheck SCRF=Check GenChk RwB97XD/ChkBas Freq
 -------------------------------------------------------------------

 Structure from the checkpoint file:  "stuff.chk"
 ------------
 Monopodal Ti
 ------------
 Charge =  0 Multiplicity = 1

                          Input orientation:
 ---------------------------------------------------------------------
 Center     Atomic      Atomic             Coordinates (Angstroms)
 Number     Number       Type             X           Y           Z
 ---------------------------------------------------------------------
      1         22           0        3.193596   -2.076067    0.330945
      2         17           0        4.273740   -3.705518    1.294335
      3         17           0        4.525138   -1.002148   -1.015814
      4         17           0        2.407211   -0.723713    1.850995
      5         22           0        0.037360    1.834864   -0.412647
      6         17           0        2.155346    2.203195   -0.769613
      7         17           0       -1.135428    3.327611   -1.480366
      8         17           0       -0.420494    1.958293    1.713797
      9         14           0       -1.210284   -0.895466   -1.884521
     10          8           0       -0.397584    0.243043   -1.024151
     11          8           0       -0.637645   -2.384985   -1.526685
     12         14           0        0.533215   -3.485616   -1.213614
     13          8           0        1.848146   -2.734036   -0.581622
     14          8           0       -2.810703   -0.739183   -1.556533
     15          8           0       -1.006014   -0.603571   -3.480199
     16          8           0       -0.034456   -4.579115   -0.141988
     17          8           0        1.004055   -4.324647   -2.543481
     18          1           0       -3.371738   -1.269406   -2.120380
     19          1           0       -1.567014   -1.134125   -4.043949
     20          1           0       -0.728701   -5.130048   -0.500557
     21          1           0        0.309898   -4.875496   -2.902041
 ---------------------------------------------------------------------

 SCF Done:  E(RwB97XD) =  -5569.09668347     A.U. after    1 cycles

 Alpha  occ. eigenvalues -- -179.19869-179.19772-101.73131-101.73084-101.73084
 Alpha  occ. eigenvalues -- -101.73029-101.72918-101.72893 -66.40837 -66.40813
 Alpha  occ. eigenvalues --  -20.17434 -20.17330 -19.30198 -19.30068 -19.28901
 Alpha  occ. eigenvalues --  -19.28219 -19.28172 -19.27806 -19.27765 -16.86751
 Alpha  occ. eigenvalues --  -16.86715 -16.86713 -16.86651 -16.86614 -16.86606
 Alpha  occ. eigenvalues --   -9.59680  -9.59629  -9.59627  -9.59579  -9.59467
 Alpha  occ. eigenvalues --   -9.59445  -7.34071  -7.34023  -7.34021  -7.33972
 Alpha  occ. eigenvalues --   -7.33859  -7.33838  -7.33783  -7.33756  -7.33728
 Alpha  occ. eigenvalues --   -7.33725  -7.33709  -7.33703  -7.33682  -7.33654
 Alpha  occ. eigenvalues --   -7.33568  -7.33546  -7.33543  -7.33520  -5.50365
 Alpha  occ. eigenvalues --   -5.50341  -3.85018  -3.84980  -3.84897  -3.84883
 Alpha  occ. eigenvalues --   -3.84856  -3.84837  -2.59349  -2.59244  -1.70104
 Alpha  occ. eigenvalues --   -1.69963  -1.69355  -1.69347  -1.69268  -1.69243
 Alpha  occ. eigenvalues --   -1.17347  -1.16059  -1.12953  -1.12911  -1.12384
 Alpha  occ. eigenvalues --   -1.10537  -1.10188  -0.92355  -0.92155  -0.91439
 Alpha  occ. eigenvalues --   -0.91370  -0.91290  -0.91212  -0.72823  -0.68834
 Alpha  occ. eigenvalues --   -0.64519  -0.64346  -0.64015  -0.59822  -0.58817
 Alpha  occ. eigenvalues --   -0.54181  -0.52707  -0.52280  -0.51638  -0.50148
 Alpha  occ. eigenvalues --   -0.49987  -0.49832  -0.48787  -0.48193  -0.48077
 Alpha  occ. eigenvalues --   -0.47536  -0.47361  -0.47224  -0.47195  -0.47031
 Alpha  occ. eigenvalues --   -0.46034  -0.45996  -0.45682  -0.45395  -0.45061
 Alpha  occ. eigenvalues --   -0.44890  -0.44483  -0.44247  -0.44101  -0.42957
 Alpha  occ. eigenvalues --   -0.41816  -0.41754  -0.41654  -0.41466  -0.41151
 Alpha  occ. eigenvalues --   -0.40558  -0.40453
 Alpha virt. eigenvalues --   -0.05867  -0.05806  -0.05759  -0.05643  -0.03173
 Alpha virt. eigenvalues --   -0.03126  -0.03102  -0.02983  -0.01996  -0.01867
 Alpha virt. eigenvalues --    0.03832   0.06609   0.07525   0.09453   0.11874

 Mulliken charges:
               1
     1  Ti   0.811675
     2  Cl  -0.157402
     3  Cl  -0.165844
     4  Cl  -0.171001
     5  Ti   0.789233
     6  Cl  -0.164341
     7  Cl  -0.151936
     8  Cl  -0.168324
     9  Si   0.688628
    10  O   -0.531398
    11  O   -0.336372
    12  Si   0.686228
    13  O   -0.536507
    14  O   -0.439874
    15  O   -0.446076
    16  O   -0.438302
    17  O   -0.440638
    18  H    0.294770
    19  H    0.292370
    20  H    0.293900
    21  H    0.291212
 Sum of Mulliken charges =   0.00000

 Dipole moment (field-independent basis, Debye):
    X=             -5.1705    Y=             -4.8838    Z=             -3.9375  Tot=              8.1296
 Quadrupole moment (field-independent basis, Debye-Ang):
   XX=           -176.4170   YY=           -160.6509   ZZ=           -166.9138
   XY=             19.6007   XZ=             13.9285   YZ=             18.5061

  Exact polarizability: 199.866 -11.607 203.602   7.808  -2.191 185.027
 Approx polarizability: 219.778  -5.469 213.803  -4.022  -5.027 219.247

 ******    5 imaginary frequencies (negative Signs) ******

                      1                      2                      3
                      A                      A                      A
 Frequencies --     -0.0386                -0.0327                -0.0241
 Red. masses --************           ************           ************
 Frc consts  --      0.0585                 0.0426                 0.0046
 IR Inten    --      0.0000                 0.0000                 0.0000

                      4                      5                      6
                      A                      A                      A
 Frequencies --     -0.0218                -0.0086                 0.0135
 Red. masses --************           ************           ************
 Frc consts  --      0.0111                 0.0023                 0.0081
 IR Inten    --      0.0000                 0.0000                 0.0000

                      7                      8                      9
                      A                      A                      A
 Frequencies --      0.0429                 0.0729                 0.0785
 Red. masses --************           ************           ************
 Frc consts  --      0.0141                 0.1503                 0.0632
 IR Inten    --      0.0000                 0.0000                 0.0000

                     10                     11                     12
                      A                      A                      A
 Frequencies --      0.1046                 0.1174                 0.1426
 Red. masses --************           ************           ************
 Frc consts  --      0.1885                 0.2713                 0.3750
 IR Inten    --      0.0000                 0.0000                 0.0000

                     13                     14                     15
                      A                      A                      A
 Frequencies --      0.2136                 0.2476                 0.5418
 Red. masses --************           ************           ************
 Frc consts  --      0.3285                 0.8153                 2.6252
 IR Inten    --      0.0000                 0.0000                 0.0000

                     16                     17                     18
                      A                      A                      A
 Frequencies --      0.5426                 0.5447                 0.5465
 Red. masses --9816080.2418           ************           ************
 Frc consts  --      1.7030                 3.4064                 6.7672
 IR Inten    --      0.0000                 0.0000                 0.0000

                     19                     20                     21
                      A                      A                      A
 Frequencies --      8.3993                 8.8647                10.1040
 Red. masses --     36.2628                36.2907                36.3660
 Frc consts  --      0.0015                 0.0017                 0.0022
 IR Inten    --      0.0510                 0.0598                 0.0352

                     22                     23                     24
                      A                      A                      A
 Frequencies --     20.0786                29.5612                33.2213
 Red. masses --     35.1769                35.8178                35.6585
 Frc consts  --      0.0084                 0.0184                 0.0232
 IR Inten    --      0.0039                 0.0020                 0.0362

                     25                     26                     27
                      A                      A                      A
 Frequencies --     44.4724                70.8511                79.1776
 Red. masses --     29.3175                33.2857                33.6219
 Frc consts  --      0.0342                 0.0984                 0.1242
 IR Inten    --      0.8436                 0.0422                 0.0164

                     28                     29                     30
                      A                      A                      A
 Frequencies --     79.6617                84.6442                88.5596
 Red. masses --     33.8754                35.0232                35.0963
 Frc consts  --      0.1267                 0.1478                 0.1622
 IR Inten    --      0.0147                 0.0476                 0.0032

                     31                     32                     33
                      A                      A                      A
 Frequencies --    125.2217               125.3131               131.6008
 Red. masses --     34.9650                34.6027                35.4329
 Frc consts  --      0.3230                 0.3202                 0.3616
 IR Inten    --      1.0055                 0.4472                 0.4655

                     34                     35                     36
                      A                      A                      A
 Frequencies --    132.2042               158.6826               198.0804
 Red. masses --     35.4637                25.7445                28.7020
 Frc consts  --      0.3652                 0.3819                 0.6635
 IR Inten    --      0.0897                 0.1623                 3.7498

                     37                     38                     39
                      A                      A                      A
 Frequencies --    258.2329               270.5520               283.4287
 Red. masses --     19.3761                17.4706                17.9295
 Frc consts  --      0.7613                 0.7535                 0.8486
 IR Inten    --     10.3527                 2.5412                10.3224

                     40                     41                     42
                      A                      A                      A
 Frequencies --    299.3617               317.6831               342.6531
 Red. masses --     17.0321                18.6603                19.1714
 Frc consts  --      0.8993                 1.1096                 1.3262
 IR Inten    --     13.4775                38.2491                11.6714

                     43                     44                     45
                      A                      A                      A
 Frequencies --    376.7711               423.3461               449.4508
 Red. masses --     27.9984                31.9889                29.6341
 Frc consts  --      2.3417                 3.3779                 3.5270
 IR Inten    --     73.1727               190.2677                 5.9182

                     46                     47                     48
                      A                      A                      A
 Frequencies --    486.4514               490.5510               496.9595
 Red. masses --     39.2898                40.3640                40.2574
 Frc consts  --      5.4778                 5.7229                 5.8578
 IR Inten    --    353.5273                34.1654                52.0768

                     49                     50                     51
                      A                      A                      A
 Frequencies --    503.1743               666.9999               675.4444
 Red. masses --     40.3788                28.4841                27.5618
 Frc consts  --      6.0234                 7.4663                 7.4086
 IR Inten    --    263.4327                70.9144                53.1961

                     52                     53                     54
                      A                      A                      A
 Frequencies --    687.0973               700.7758               741.4730
 Red. masses --     27.1078                26.8895                27.2822
 Frc consts  --      7.5402                 7.7802                 8.8373
 IR Inten    --     79.4830               294.3459                67.8676

                     55                     56                     57
                      A                      A                      A
 Frequencies --    996.8683              1065.4880              1141.9481
 Red. masses --     17.6977                17.7325                17.4598
 Frc consts  --     10.3620                11.8609                13.4148
 IR Inten    --    566.2675              1765.5789               576.3950

 - Thermochemistry -
 -------------------
 Temperature   298.150 Kelvin.  Pressure   1.00000 Atm.
 Atom     1 has atomic number 22 and mass  47.94795

 Molecular mass: *********** amu.
 Principal axes and moments of inertia in atomic units:
                           1         2         3
     Eigenvalues --  ******************************
           X           -0.50203  -0.56019   0.65890
           Y            0.81667  -0.05632   0.57435
           Z           -0.28464   0.82644   0.48577
 This molecule is an asymmetric top.
 Rotational symmetry number  1.
 Warning -- assumption of classical behavior for rotation
           may cause significant error
 Rotational temperatures (Kelvin)      0.00000     0.00000     0.00000
 Rotational constants (GHZ):           0.00000     0.00000     0.00000
    5 imaginary frequencies ignored.
 Zero-point vibrational energy      78395.0 (Joules/Mol)
                                   18.73685 (Kcal/Mol)
 Warning -- explicit consideration of  44 degrees of freedom as
           vibrations may cause significant error
 Vibrational temperatures:      0.02     0.06     0.10     0.11     0.15
          (Kelvin)              0.17     0.21     0.31     0.36     0.78
                                0.78     0.78     0.79    12.08    12.75
                               14.54    28.89    42.53    47.80    63.99
                              101.94   113.92   114.62   121.78   127.42
                              180.17   180.30   189.34   190.21   228.31
                              284.99   371.54   389.26   407.79   430.71
                              457.07   493.00   542.09   609.10   646.66
                              699.89   705.79   715.01   723.95   959.66
                              971.81   988.58  1008.26  1066.81  1434.27
                             1533.00  1643.01

 Zero-point correction=                           0.029859 (Hartree/Particle)
 Thermal correction to Energy=                    0.064030
 Thermal correction to Enthalpy=                  0.064974
 Thermal correction to Gibbs Free Energy=        -0.161101
 Sum of electronic and zero-point Energies=          -5569.066824
 Sum of electronic and thermal Energies=             -5569.032654
 Sum of electronic and thermal Enthalpies=           -5569.031710
 Sum of electronic and thermal Free Energies=        -5569.257784

                     E (Thermal)             CV                S
                      KCal/Mol        Cal/Mol-Kelvin    Cal/Mol-Kelvin
 Total                   40.179             91.513            475.814
 Electronic               0.000              0.000              0.000
 Translational            0.889              2.981             87.098
 Rotational               0.889              2.981             77.022
 Vibrational             38.402             85.551            311.693
 Vibration     1          0.592              1.987             21.147
 Vibration     2          0.592              1.987             18.845
 Vibration     3          0.592              1.987             17.791
 Vibration     4          0.592              1.987             17.643
 Vibration     5          0.592              1.987             17.072
 Vibration     6          0.592              1.987             16.843
 Vibration     7          0.592              1.987             16.457
 Vibration     8          0.592              1.987             15.654
 Vibration     9          0.592              1.987             15.360
 Vibration    10          0.592              1.987             13.804
 Vibration    11          0.592              1.987             13.801
 Vibration    12          0.592              1.987             13.794
 Vibration    13          0.592              1.987             13.787
 Vibration    14          0.593              1.987              8.358
 Vibration    15          0.593              1.987              8.251
 Vibration    16          0.593              1.987              7.990
 Vibration    17          0.593              1.986              6.626
 Vibration    18          0.593              1.984              5.859
 Vibration    19          0.594              1.983              5.627
 Vibration    20          0.595              1.980              5.049
 Vibration    21          0.598              1.968              4.130
 Vibration    22          0.600              1.963              3.911
 Vibration    23          0.600              1.963              3.899
 Vibration    24          0.601              1.960              3.780
 Vibration    25          0.601              1.957              3.692
 Vibration    26          0.610              1.928              3.018
 Vibration    27          0.610              1.928              3.017
 Vibration    28          0.612              1.922              2.923
 Vibration    29          0.612              1.921              2.914
 Vibration    30          0.621              1.893              2.565
 Vibration    31          0.637              1.843              2.151
 Vibration    32          0.667              1.749              1.674
 Vibration    33          0.674              1.727              1.593
 Vibration    34          0.682              1.704              1.513
 Vibration    35          0.692              1.675              1.420
 Vibration    36          0.704              1.640              1.322
 Vibration    37          0.722              1.590              1.200
 Vibration    38          0.747              1.520              1.052
 Vibration    39          0.786              1.419              0.881
 Vibration    40          0.808              1.362              0.797
 Vibration    41          0.842              1.280              0.693
 Vibration    42          0.846              1.271              0.682
 Vibration    43          0.852              1.257              0.666
 Vibration    44          0.858              1.243              0.650

 Optimization completed.
    -- Stationary point found.

 1\1\GINC-NODE122\Freq\RwB97XD\Gen\Cl6H4O7Si2Ti2\SALMAN\03-Feb-2019\0\\
 #P Geom=AllCheck Guess=TCheck SCRF=Check GenChk RwB97XD/ChkBas Freq\\M
 onopodal Ti\\0,1\Ti,3.1935961931,-2.0760672158,0.3309447481\Cl,4.27373
 97679,-3.7055175642,1.2943349172\Cl,4.5251377795,-1.0021475263,-1.0158
 140987\Cl,2.4072113746,-0.7237133205,1.8509946976\Ti,0.0373604128,1.83
 48640818,-0.4126465331\Cl,2.1553458737,2.2031948219,-0.7696127835\Cl,-
 1.1354280469,3.3276110936,-1.4803655759\Cl,-0.4204943487,1.9582930977,
 1.7137965657\Si,-1.2102840119,-0.895465968,-1.8845209332\O,-0.39758365

 Normal termination of Gaussian 09 at Sun Feb  3 15:29:37 2019.
